; Topology for Collagen Microfibril from Colbuilder 2.0
#include "./amber99sb-star-ildnp.ff/forcefield.itp"
#include "col_0.itp"
#include "col_1.itp"
#include "col_2.itp"
#include "col_3.itp"
#include "col_5.itp"
#include "col_6.itp"
#include "col_7.itp"
#include "col_8.itp"
#include "col_9_54.itp"
#include "col_11.itp"
#include "col_12_28.itp"
#include "col_13_57.itp"
#include "col_14_29.itp"
#include "col_17_43.itp"
#include "col_19.itp"
#include "col_23_80.itp"
#include "col_24.itp"
#include "col_25.itp"
#include "col_26_79.itp"
#include "col_31.itp"
#include "col_33_58.itp"
#include "col_34_46.itp"
#include "col_36_41.itp"
#include "col_37.itp"
#include "col_38.itp"
#include "col_39.itp"
#include "col_44.itp"
#include "col_47.itp"
#include "col_48.itp"
#include "col_49.itp"
#include "col_50.itp"
#include "col_51.itp"
#include "col_53.itp"
#include "col_55.itp"
#include "col_59.itp"
#include "col_73.itp"
#include "col_74.itp"
#include "./amber99sb-star-ildnp.ff/ions.itp"
#include "./amber99sb-star-ildnp.ff/tip3p.itp"


[ system ]
 ;name
Collagen Microfibril in Water

[ molecules ]
;name  number
col_0   1
col_1   1
col_2   1
col_3   1
col_5   1
col_6   1
col_7   1
col_8   1
col_9_54   1
col_11   1
col_12_28   1
col_13_57   1
col_14_29   1
col_17_43   1
col_19   1
col_23_80   1
col_24   1
col_25   1
col_26_79   1
col_31   1
col_33_58   1
col_34_46   1
col_36_41   1
col_37   1
col_38   1
col_39   1
col_44   1
col_47   1
col_48   1
col_49   1
col_50   1
col_51   1
col_53   1
col_55   1
col_59   1
col_73   1
col_74   1
